;
;   File k53_lig.top  was generated
;   By user: zhukai (1055)
;   On host:gpu05 
;   At date:Wed. December  3 18:49:32 2025 
;
;   This is a standalone topology file
;
;   Created by:
;   ParmEd:       amber-to-gmx.py, VERSION0+unknown 
;   Executable:   amber-to-gmx.py
;   Library dir:  /usr/local/gromacs/share/gromacs/top
;   Command line:
;     amber-to-gmx.py
;

[ atomtypes ]
; name    at.num    mass    charge ptype  sigma      epsilon
cc             6  12.010000  0.00000000  A     0.33996695       0.359824
nc             7  14.010000  0.00000000  A     0.32499985        0.71128
os             8  16.000000  0.00000000  A     0.30000123        0.71128
cd             6  12.010000  0.00000000  A     0.33996695       0.359824
na             7  14.010000  0.00000000  A     0.32499985        0.71128
oh             8  16.000000  0.00000000  A     0.30664734      0.8803136
c3             6  12.010000  0.00000000  A     0.33996695      0.4577296
nd             7  14.010000  0.00000000  A     0.32499985        0.71128
cp             6  12.010000  0.00000000  A     0.33996695       0.359824
ca             6  12.010000  0.00000000  A     0.33996695       0.359824
h5             1   1.008000  0.00000000  A     0.24214627        0.06276
h1             1   1.008000  0.00000000  A      0.2471353      0.0656888
ha             1   1.008000  0.00000000  A     0.25996425        0.06276
ho             1   1.008000  0.00000000  A              0              0


[ moleculetype ]
; Name            nrexcl
MOL          3

[ atoms ]
;   nr       type  resnr residue  atom   cgnr    charge       mass  typeB    chargeB      massB
; residue    1 MOL rtp MOL q -0.0
    1         cc      1    MOL     C1      1 0.52897400  12.010000   ; qtot 0.528974
    2         nc      1    MOL     N1      2 -0.69778200  14.010000   ; qtot -0.168808
    3         os      1    MOL     O1      3 -0.40509400  16.000000   ; qtot -0.573902
    4         cd      1    MOL     C2      4 0.28144900  12.010000   ; qtot -0.292453
    5         na      1    MOL     N2      5 0.26731900  14.010000   ; qtot -0.025134
    6         oh      1    MOL     O2      6 -0.70369600  16.000000   ; qtot -0.728830
    7         c3      1    MOL     C3      7 -0.26239800  12.010000   ; qtot -0.991228
    8         nd      1    MOL     N3      8 -0.65371000  14.010000   ; qtot -1.644938
    9         cp      1    MOL     C4      9 -0.07482500  12.010000   ; qtot -1.719763
   10         cp      1    MOL     C5     10 0.13314100  12.010000   ; qtot -1.586622
   11         ca      1    MOL     C6     11 -0.07989000  12.010000   ; qtot -1.666512
   12         ca      1    MOL     C7     12 -0.07989000  12.010000   ; qtot -1.746402
   13         c3      1    MOL     C8     13 0.44888200  12.010000   ; qtot -1.297520
   14         ca      1    MOL     C9     14 0.48970900  12.010000   ; qtot -0.807811
   15         c3      1    MOL    C10     15 -0.14140900  12.010000   ; qtot -0.949220
   16         ca      1    MOL    C11     16 -0.35976000  12.010000   ; qtot -1.308980
   17         ca      1    MOL    C12     17 -0.35976000  12.010000   ; qtot -1.668740
   18         ca      1    MOL    C13     18 -0.17873200  12.010000   ; qtot -1.847472
   19         ca      1    MOL    C14     19 -0.17873200  12.010000   ; qtot -2.026204
   20         ca      1    MOL    C15     20 -0.14615500  12.010000   ; qtot -2.172359
   21         ca      1    MOL    C16     21 -0.14615500  12.010000   ; qtot -2.318514
   22         ca      1    MOL    C17     22 -0.13628400  12.010000   ; qtot -2.454798
   23         h5      1    MOL     H1     23 0.07105000   1.008000   ; qtot -2.383748
   24         h5      1    MOL     H2     24 0.13073500   1.008000   ; qtot -2.253013
   25         h1      1    MOL     H3     25 0.11389700   1.008000   ; qtot -2.139116
   26         h1      1    MOL     H4     26 0.11389700   1.008000   ; qtot -2.025219
   27         ha      1    MOL     H5     27 0.13852300   1.008000   ; qtot -1.886696
   28         ha      1    MOL     H6     28 0.13852300   1.008000   ; qtot -1.748173
   29         h1      1    MOL     H7     29 -0.01050700   1.008000   ; qtot -1.758680
   30         h1      1    MOL     H8     30 0.13674400   1.008000   ; qtot -1.621936
   31         h1      1    MOL     H9     31 0.13674400   1.008000   ; qtot -1.485192
   32         ha      1    MOL    H10     32 0.17990200   1.008000   ; qtot -1.305290
   33         ha      1    MOL    H11     33 0.17990200   1.008000   ; qtot -1.125388
   34         ho      1    MOL    H12     34 0.43367500   1.008000   ; qtot -0.691713
   35         ha      1    MOL    H13     35 0.13622000   1.008000   ; qtot -0.555493
   36         ha      1    MOL    H14     36 0.13622000   1.008000   ; qtot -0.419273
   37         ha      1    MOL    H15     37 0.14169300   1.008000   ; qtot -0.277580
   38         ha      1    MOL    H16     38 0.14169300   1.008000   ; qtot -0.135887
   39         ha      1    MOL    H17     39 0.13588600   1.008000   ; qtot -0.000001

[ bonds ]
;    ai     aj funct         c0         c1         c2         c3
      1      2     1   0.13694 369112.480000
      1      8     1   0.13172 439654.720000
      2      4     1   0.13172 439654.720000
      3     14     1   0.13696 315138.880000
      3     15     1   0.14316 258236.480000
      4      5     1   0.13802 356309.440000
      5      7     1   0.14629 274219.360000
      5      8     1   0.13541 442165.120000
      6     13     1   0.14233 265014.560000
      7     13     1   0.15375 251793.120000
      9     10     1   0.14854 294051.520000
      9     11     1   0.14058 376727.360000
      9     12     1   0.14058 376727.360000
     10     18     1   0.14058 376727.360000
     10     19     1   0.14058 376727.360000
     11     16     1   0.13984 385848.480000
     12     17     1   0.13984 385848.480000
     13     15     1   0.15375 251793.120000
     14     16     1   0.13984 385848.480000
     14     17     1   0.13984 385848.480000
     18     21     1   0.13984 385848.480000
     19     20     1   0.13984 385848.480000
     20     22     1   0.13984 385848.480000
     21     22     1   0.13984 385848.480000
      1     23     1   0.10819 294302.560000
      4     24     1   0.10818 294386.240000
      6     34     1   0.09730 310787.520000
      7     25     1   0.10969 276646.080000
      7     26     1   0.10969 276646.080000
     11     27     1   0.10860 289365.440000
     12     28     1   0.10860 289365.440000
     13     29     1   0.10969 276646.080000
     15     30     1   0.10969 276646.080000
     15     31     1   0.10969 276646.080000
     16     32     1   0.10860 289365.440000
     17     33     1   0.10860 289365.440000
     18     35     1   0.10860 289365.440000
     19     36     1   0.10860 289365.440000
     20     37     1   0.10860 289365.440000
     21     38     1   0.10860 289365.440000
     22     39     1   0.10860 289365.440000

[ pairs ]
;    ai     aj funct         c0         c1         c2         c3
      1      7     1
      2      7     1
      3     11     1
      3     12     1
      3      6     1
      3      7     1
      4     13     1
      5      6     1
      5     15     1
      8     13     1
      9     21     1
      9     20     1
      9     14     1
     10     16     1
     10     17     1
     10     22     1
     11     18     1
     11     19     1
     11     17     1
     12     18     1
     12     19     1
     12     16     1
     13     14     1
     15     16     1
     15     17     1
     18     20     1
     19     21     1
      1     24     1
      3     32     1
      3     33     1
      3     29     1
     23      4     1
      4     25     1
      4     26     1
      5     29     1
     23      5     1
      6     25     1
      6     26     1
      6     30     1
      6     31     1
      7     24     1
      7     34     1
      7     30     1
      7     31     1
      8     24     1
      8     25     1
      8     26     1
      9     35     1
      9     36     1
      9     32     1
      9     33     1
     10     27     1
     10     28     1
     10     38     1
     10     37     1
     11     28     1
     12     27     1
     14     30     1
     14     31     1
     14     27     1
     14     28     1
     15     34     1
     15     25     1
     15     26     1
     16     33     1
     17     32     1
     18     36     1
     18     39     1
     19     35     1
     19     39     1
     20     38     1
     21     37     1
     22     36     1
     22     35     1
     25     29     1
     26     29     1
     27     32     1
     28     33     1
     29     34     1
     29     30     1
     29     31     1
     35     38     1
     36     37     1
     37     39     1
     38     39     1

[ angles ]
;    ai     aj     ak funct         c0         c1         c2         c3
      1      2      4     1   105.4900454 600.822400
      1      8      5     1   103.8200447 624.252800
      2      1      8     1   115.8300497 619.232000
      2      4      5     1   112.2200483 626.763200
      3     14     16     1   119.2000511 582.412800
      3     14     17     1   119.2000511 582.412800
      3     15     13     1   107.9700462 569.024000
      4      5      7     1   126.4600543 517.979200
      4      5      8     1   112.3600483 585.760000
      5      7     13     1   112.8800481 548.104000
      6     13      7     1   110.1900474 564.840000
      6     13     15     1   110.1900474 564.840000
      7      5      8     1   120.1800513 548.104000
      7     13     15     1   111.5100476 526.347200
      9     10     18     1   121.1100517 535.552000
      9     10     19     1   121.1100517 535.552000
      9     11     16     1   120.6900519 554.798400
      9     12     17     1   120.6900519 554.798400
     10      9     11     1   121.1100517 535.552000
     10      9     12     1   121.1100517 535.552000
     10     18     21     1   120.6900519 554.798400
     10     19     20     1   120.6900519 554.798400
     11      9     12     1   118.3800505 558.145600
     11     16     14     1   120.0200517 557.308800
     12     17     14     1   120.0200517 557.308800
     14      3     15     1   117.9600507 523.000000
     16     14     17     1   120.0200517 557.308800
     18     10     19     1   118.3800505 558.145600
     18     21     22     1   120.0200517 557.308800
     19     20     22     1   120.0200517 557.308800
     20     22     21     1   120.0200517 557.308800
      2      1     23     1   122.9200529 415.052800
      2      4     24     1   125.5200540 423.420800
      3     15     30     1   109.7800468 425.094400
      3     15     31     1   109.7800468 425.094400
      5      4     24     1   121.5500524 415.052800
      5      7     25     1   108.7800464 416.726400
      5      7     26     1   108.7800464 416.726400
      6     13     29     1   110.2600474 425.931200
      7     13     29     1   109.5600471 388.275200
      8      1     23     1   125.5200540 423.420800
      9     11     27     1   119.8600515 401.664000
      9     12     28     1   119.8600515 401.664000
     10     18     35     1   119.8600515 401.664000
     10     19     36     1   119.8600515 401.664000
     11     16     32     1   119.8800511 403.337600
     12     17     33     1   119.8800511 403.337600
     13      6     34     1   107.2600461 396.643200
     13      7     25     1   109.5600471 388.275200
     13      7     26     1   109.5600471 388.275200
     13     15     30     1   109.5600471 388.275200
     13     15     31     1   109.5600471 388.275200
     14     16     32     1   119.8800511 403.337600
     14     17     33     1   119.8800511 403.337600
     15     13     29     1   109.5600471 388.275200
     16     11     27     1   119.8800511 403.337600
     17     12     28     1   119.8800511 403.337600
     18     21     38     1   119.8800511 403.337600
     19     20     37     1   119.8800511 403.337600
     20     19     36     1   119.8800511 403.337600
     20     22     39     1   119.8800511 403.337600
     21     18     35     1   119.8800511 403.337600
     21     22     39     1   119.8800511 403.337600
     22     20     37     1   119.8800511 403.337600
     22     21     38     1   119.8800511 403.337600
     25      7     26     1   108.4600466 328.025600
     30     15     31     1   108.4600466 328.025600

[ dihedrals ]
;    ai     aj     ak     al funct         c0         c1         c2         c3         c4         c5
      1      2      4      5     1  180.0000771  19.8740000  2
      1      8      5      4     1  180.0000771  20.0832000  2
      1      8      5      7     1  180.0000771  20.0832000  2
      2      1      8      5     1  180.0000771  19.8740000  2
      2      4      5      7     1  180.0000771  7.1128000  2
      2      4      5      8     1  180.0000771  7.1128000  2
      3     14     16     11     1  180.0000771  15.1670000  2
      3     14     17     12     1  180.0000771  15.1670000  2
      3     15     13      6     1  0.0000000  4.9162000  2
      3     15     13      6     1  0.0000000  0.6024960  3
      3     15     13      7     1  0.0000000  0.6508444  3
      8      1      2      4     1  180.0000771  19.8740000  2
      4      5      7     13     1  0.0000000  0.0000000  2
      5      7     13      6     1  0.0000000  0.6508444  3
      5      7     13     15     1  0.0000000  0.6508444  3
      8      5      7     13     1  0.0000000  0.0000000  2
      9     10     18     21     1  180.0000771  15.1670000  2
      9     10     19     20     1  180.0000771  15.1670000  2
      9     11     16     14     1  180.0000771  15.1670000  2
      9     12     17     14     1  180.0000771  15.1670000  2
     10      9     11     16     1  180.0000771  15.1670000  2
     10      9     12     17     1  180.0000771  15.1670000  2
     10     18     21     22     1  180.0000771  15.1670000  2
     10     19     20     22     1  180.0000771  15.1670000  2
     11      9     10     18     1  180.0000771  4.1840000  2
     11      9     10     19     1  180.0000771  4.1840000  2
     11      9     12     17     1  180.0000771  15.1670000  2
     11     16     14     17     1  180.0000771  15.1670000  2
     12      9     10     18     1  180.0000771  4.1840000  2
     12      9     10     19     1  180.0000771  4.1840000  2
     12      9     11     16     1  180.0000771  15.1670000  2
     12     17     14     16     1  180.0000771  15.1670000  2
     13     15      3     14     1  0.0000000  1.6038667  3
     15      3     14     16     1  180.0000771  3.7656000  2
     15      3     14     17     1  180.0000771  3.7656000  2
     18     10     19     20     1  180.0000771  15.1670000  2
     18     21     22     20     1  180.0000771  15.1670000  2
     19     10     18     21     1  180.0000771  15.1670000  2
     19     20     22     21     1  180.0000771  15.1670000  2
      7      4      5      8     4  180.0000771  4.6024000  2
     11     12      9     10     4  180.0000771  4.6024000  2
     18     19     10      9     4  180.0000771  4.6024000  2
     16     17     14      3     4  180.0000771  4.6024000  2
      1      2      4     24     1  180.0000771  19.8740000  2
      3     14     16     32     1  180.0000771  15.1670000  2
      3     14     17     33     1  180.0000771  15.1670000  2
      3     15     13     29     1  0.0000000  1.0460000  1
      3     15     13     29     1  0.0000000  0.0000000  3
     23      1      2      4     1  180.0000771  19.8740000  2
      4      5      7     25     1  0.0000000  0.0000000  2
      4      5      7     26     1  0.0000000  0.0000000  2
      5      7     13     29     1  0.0000000  0.6508444  3
     23      1      8      5     1  180.0000771  19.8740000  2
      6     13      7     25     1  0.0000000  1.0460000  1
      6     13      7     25     1  0.0000000  0.0000000  3
      6     13      7     26     1  0.0000000  1.0460000  1
      6     13      7     26     1  0.0000000  0.0000000  3
      6     13     15     30     1  0.0000000  1.0460000  1
      6     13     15     30     1  0.0000000  0.0000000  3
      6     13     15     31     1  0.0000000  1.0460000  1
      6     13     15     31     1  0.0000000  0.0000000  3
      7      5      4     24     1  180.0000771  7.1128000  2
      7     13      6     34     1  0.0000000  1.0460000  1
      7     13      6     34     1  0.0000000  0.6694400  3
      7     13     15     30     1  0.0000000  0.6508444  3
      7     13     15     31     1  0.0000000  0.6508444  3
      8      5      4     24     1  180.0000771  7.1128000  2
      8      5      7     25     1  0.0000000  0.0000000  2
      8      5      7     26     1  0.0000000  0.0000000  2
      9     10     18     35     1  180.0000771  15.1670000  2
      9     10     19     36     1  180.0000771  15.1670000  2
      9     11     16     32     1  180.0000771  15.1670000  2
      9     12     17     33     1  180.0000771  15.1670000  2
     10      9     11     27     1  180.0000771  15.1670000  2
     10      9     12     28     1  180.0000771  15.1670000  2
     10     18     21     38     1  180.0000771  15.1670000  2
     10     19     20     37     1  180.0000771  15.1670000  2
     11      9     12     28     1  180.0000771  15.1670000  2
     12      9     11     27     1  180.0000771  15.1670000  2
     14      3     15     30     1  0.0000000  1.6038667  3
     14      3     15     31     1  0.0000000  1.6038667  3
     14     16     11     27     1  180.0000771  15.1670000  2
     14     17     12     28     1  180.0000771  15.1670000  2
     15     13      6     34     1  0.0000000  1.0460000  1
     15     13      6     34     1  0.0000000  0.6694400  3
     15     13      7     25     1  0.0000000  0.6508444  3
     15     13      7     26     1  0.0000000  0.6508444  3
     16     14     17     33     1  180.0000771  15.1670000  2
     17     14     16     32     1  180.0000771  15.1670000  2
     18     10     19     36     1  180.0000771  15.1670000  2
     18     21     22     39     1  180.0000771  15.1670000  2
     19     10     18     35     1  180.0000771  15.1670000  2
     19     20     22     39     1  180.0000771  15.1670000  2
     20     22     21     38     1  180.0000771  15.1670000  2
     21     22     20     37     1  180.0000771  15.1670000  2
     22     20     19     36     1  180.0000771  15.1670000  2
     22     21     18     35     1  180.0000771  15.1670000  2
     25      7     13     29     1  0.0000000  0.6508444  3
     26      7     13     29     1  0.0000000  0.6508444  3
     27     11     16     32     1  180.0000771  15.1670000  2
     28     12     17     33     1  180.0000771  15.1670000  2
     29     13      6     34     1  0.0000000  0.6973333  3
     29     13     15     30     1  0.0000000  0.6508444  3
     29     13     15     31     1  0.0000000  0.6508444  3
     35     18     21     38     1  180.0000771  15.1670000  2
     36     19     20     37     1  180.0000771  15.1670000  2
     37     20     22     39     1  180.0000771  15.1670000  2
     38     21     22     39     1  180.0000771  15.1670000  2
      8      1      2     23     4  180.0000771  4.6024000  2
     24      5      4      2     4  180.0000771  4.6024000  2
     16      9     11     27     4  180.0000771  4.6024000  2
     17      9     12     28     4  180.0000771  4.6024000  2
     11     14     16     32     4  180.0000771  4.6024000  2
     12     14     17     33     4  180.0000771  4.6024000  2
     21     10     18     35     4  180.0000771  4.6024000  2
     20     10     19     36     4  180.0000771  4.6024000  2
     19     22     20     37     4  180.0000771  4.6024000  2
     18     22     21     38     4  180.0000771  4.6024000  2
     20     21     22     39     4  180.0000771  4.6024000  2
