;
;   File 1_lig.top  was generated
;   By user: zhukai (1055)
;   On host:gpu05 
;   At date:Sat. January  6 00:07:00 2026 
;
;   This is a standalone topology file
;
;   Created by:
;   ParmEd:       amber-to-gmx.py, VERSION0+unknown 
;   Executable:   amber-to-gmx.py
;   Library dir:  /usr/local/gromacs/share/gromacs/top
;   Command line:
;     amber-to-gmx.py
;

[ atomtypes ]
; name    at.num    mass    charge ptype  sigma      epsilon
ca             6  12.010000  0.00000000  A     0.33996695       0.359824
n              7  14.010000  0.00000000  A     0.32499985        0.71128
o              8  16.000000  0.00000000  A     0.29599219        0.87864
ss            16  32.060000  0.00000000  A     0.35635949          1.046
c3             6  12.010000  0.00000000  A     0.33996695      0.4577296
s             16  32.060000  0.00000000  A     0.35635949          1.046
ce             6  12.010000  0.00000000  A     0.33996695       0.359824
cd             6  12.010000  0.00000000  A     0.33996695       0.359824
c              6  12.010000  0.00000000  A     0.33996695       0.359824
hn             1   1.008000  0.00000000  A     0.10690785      0.0656888
ha             1   1.008000  0.00000000  A     0.25996425        0.06276
hc             1   1.008000  0.00000000  A     0.26495328      0.0656888


[ moleculetype ]
; Name            nrexcl
MOL          3

[ atoms ]
;   nr       type  resnr residue  atom   cgnr    charge       mass  typeB    chargeB      massB
; residue    1 MOL rtp MOL q 0.0
    1         ca      1    MOL     C1      1 0.04213300  12.010000   ; qtot 0.042133
    2          n      1    MOL     N1      2 -0.35465200  14.010000   ; qtot -0.312519
    3          o      1    MOL     O1      3 -0.49466500  16.000000   ; qtot -0.807184
    4         ss      1    MOL     S1      4 -0.08173100  32.060000   ; qtot -0.888915
    5         c3      1    MOL     C2      5 0.09317500  12.010000   ; qtot -0.795740
    6          s      1    MOL     S2      6 -0.29799500  32.060000   ; qtot -1.093735
    7         ca      1    MOL     C3      7 0.20108600  12.010000   ; qtot -0.892649
    8         ca      1    MOL     C4      8 -0.21403300  12.010000   ; qtot -1.106682
    9         ca      1    MOL     C5      9 -0.21403300  12.010000   ; qtot -1.320715
   10         ca      1    MOL     C6     10 -0.15471500  12.010000   ; qtot -1.475430
   11         ca      1    MOL     C7     11 -0.15471500  12.010000   ; qtot -1.630145
   12         ce      1    MOL     C8     12 -0.32951300  12.010000   ; qtot -1.959658
   13         cd      1    MOL     C9     13 0.02641100  12.010000   ; qtot -1.933247
   14         c3      1    MOL    C10     14 -0.08783400  12.010000   ; qtot -2.021081
   15          c      1    MOL    C11     15 0.65203500  12.010000   ; qtot -1.369046
   16          c      1    MOL    C12     16 0.15815200  12.010000   ; qtot -1.210894
   17         hn      1    MOL     H1     17 0.29386700   1.008000   ; qtot -0.917027
   18         ha      1    MOL     H2     18 0.16401000   1.008000   ; qtot -0.753017
   19         ha      1    MOL     H3     19 0.16401000   1.008000   ; qtot -0.589007
   20         ha      1    MOL     H4     20 0.13637700   1.008000   ; qtot -0.452630
   21         ha      1    MOL     H5     21 0.13637700   1.008000   ; qtot -0.316253
   22         ha      1    MOL     H6     22 0.23457300   1.008000   ; qtot -0.081680
   23         hc      1    MOL     H7     23 0.00213000   1.008000   ; qtot -0.079550
   24         hc      1    MOL     H8     24 0.00213000   1.008000   ; qtot -0.077420
   25         hc      1    MOL     H9     25 0.02580700   1.008000   ; qtot -0.051613
   26         hc      1    MOL    H10     26 0.02580700   1.008000   ; qtot -0.025806
   27         hc      1    MOL    H11     27 0.02580700   1.008000   ; qtot 0.000001

[ bonds ]
;    ai     aj funct         c0         c1         c2         c3
      1      5     1   0.15156 268612.800000
      1      8     1   0.13984 385848.480000
      1      9     1   0.13984 385848.480000
      2     15     1   0.13789 357815.680000
      2     16     1   0.13789 357815.680000
      3     15     1   0.12183 533627.360000
      4     13     1   0.17562 222421.440000
      4     16     1   0.18000 199074.720000
      5     14     1   0.15375 251793.120000
      6     16     1   0.16723 277231.840000
      7     10     1   0.13984 385848.480000
      7     11     1   0.13984 385848.480000
      7     12     1   0.14763 302335.840000
      8     10     1   0.13984 385848.480000
      9     11     1   0.13984 385848.480000
     12     13     1   0.13656 429278.400000
     13     15     1   0.14676 310452.800000
      2     17     1   0.10129 337397.760000
      5     23     1   0.10969 276646.080000
      5     24     1   0.10969 276646.080000
      8     18     1   0.10860 289365.440000
      9     19     1   0.10860 289365.440000
     10     20     1   0.10860 289365.440000
     11     21     1   0.10860 289365.440000
     12     22     1   0.10883 286604.000000
     14     25     1   0.10969 276646.080000
     14     26     1   0.10969 276646.080000
     14     27     1   0.10969 276646.080000

[ pairs ]
;    ai     aj funct         c0         c1         c2         c3
      1      7     1
      2     12     1
      3     16     1
      3      4     1
      3     12     1
      4      7     1
      5     10     1
      5     11     1
      6     15     1
      6     13     1
      7     15     1
      8     14     1
      8     11     1
      8     12     1
      9     14     1
      9     10     1
      9     12     1
     10     13     1
     11     13     1
     12     16     1
      1     25     1
      1     26     1
      1     27     1
      1     20     1
      1     21     1
      3     17     1
      4     22     1
      4     17     1
      5     18     1
      5     19     1
      6     17     1
      7     18     1
      7     19     1
      8     23     1
      8     24     1
      8     19     1
      9     23     1
      9     24     1
      9     18     1
     10     21     1
     10     22     1
     11     20     1
     11     22     1
     12     20     1
     12     21     1
     13     17     1
     15     22     1
     18     20     1
     19     21     1
     23     25     1
     23     26     1
     23     27     1
     24     25     1
     24     26     1
     24     27     1

[ angles ]
;    ai     aj     ak funct         c0         c1         c2         c3
      1      5     14     1   112.0700480 528.020800
      1      8     10     1   120.0200517 557.308800
      1      9     11     1   120.0200517 557.308800
      2     15      3     1   123.0500530 620.905600
      2     15     13     1   112.7000483 578.228800
      2     16      4     1   110.2900474 547.267200
      2     16      6     1   124.0500535 547.267200
      3     15     13     1   123.9300532 578.228800
      4     13     12     1   121.5800519 512.958400
      4     13     15     1   121.9700522 510.448000
      4     16      6     1   123.1900530 517.142400
      5      1      8     1   120.7700517 531.368000
      5      1      9     1   120.7700517 531.368000
      7     10      8     1   120.0200517 557.308800
      7     11      9     1   120.0200517 557.308800
      7     12     13     1   130.8800559 523.836800
      8      1      9     1   120.0200517 557.308800
     10      7     11     1   120.0200517 557.308800
     10      7     12     1   120.8200520 539.736000
     11      7     12     1   120.8200520 539.736000
     12     13     15     1   121.5700520 530.531200
     13      4     16     1   94.8900408 533.041600
     15      2     16     1   127.0800542 533.041600
      1      5     23     1   110.4700473 391.622400
      1      5     24     1   110.4700473 391.622400
      1      8     18     1   119.8800511 403.337600
      1      9     19     1   119.8800511 403.337600
      5     14     25     1   109.8000471 387.438400
      5     14     26     1   109.8000471 387.438400
      5     14     27     1   109.8000471 387.438400
      7     10     20     1   119.8800511 403.337600
      7     11     21     1   119.8800511 403.337600
      7     12     22     1   115.1300494 393.296000
      8     10     20     1   119.8800511 403.337600
      9     11     21     1   119.8800511 403.337600
     10      8     18     1   119.8800511 403.337600
     11      9     19     1   119.8800511 403.337600
     13     12     22     1   114.9500496 419.236800
     14      5     23     1   109.8000471 387.438400
     14      5     24     1   109.8000471 387.438400
     15      2     17     1   117.5500507 404.174400
     16      2     17     1   117.5500507 404.174400
     23      5     24     1   107.5800459 329.699200
     25     14     26     1   107.5800459 329.699200
     25     14     27     1   107.5800459 329.699200
     26     14     27     1   107.5800459 329.699200

[ dihedrals ]
;    ai     aj     ak     al funct         c0         c1         c2         c3         c4         c5
      1      8     10      7     1  180.0000771  15.1670000  2
      1      9     11      7     1  180.0000771  15.1670000  2
      2     15     13      4     1  180.0000771  12.0290000  2
      2     15     13     12     1  180.0000771  12.0290000  2
      2     16      4     13     1  180.0000771  12.9704000  2
      3     15      2     16     1  180.0000771  10.4600000  2
      3     15     13      4     1  180.0000771  12.0290000  2
      3     15     13     12     1  180.0000771  12.0290000  2
      4     13     12      7     1  180.0000771  27.8236000  2
      4     16      2     15     1  180.0000771  10.4600000  2
      5      1      8     10     1  180.0000771  15.1670000  2
      5      1      9     11     1  180.0000771  15.1670000  2
      6     16      2     15     1  180.0000771  10.4600000  2
      6     16      4     13     1  180.0000771  12.9704000  2
      7     12     13     15     1  180.0000771  27.8236000  2
      8      1      5     14     1  0.0000000  0.0000000  2
      8      1      9     11     1  180.0000771  15.1670000  2
      8     10      7     11     1  180.0000771  15.1670000  2
      8     10      7     12     1  180.0000771  15.1670000  2
      9      1      5     14     1  0.0000000  0.0000000  2
      9      1      8     10     1  180.0000771  15.1670000  2
      9     11      7     10     1  180.0000771  15.1670000  2
      9     11      7     12     1  180.0000771  15.1670000  2
     10      7     12     13     1  180.0000771  2.9288000  2
     11      7     12     13     1  180.0000771  2.9288000  2
     12     13      4     16     1  180.0000771  4.6024000  2
     13     15      2     16     1  180.0000771  10.4600000  2
     15     13      4     16     1  180.0000771  4.6024000  2
      5      1      9      8     4  180.0000771  4.6024000  2
     10     11      7     12     4  180.0000771  4.6024000  2
     15     12     13      4     4  180.0000771  4.6024000  2
     13      2     15      3     4  180.0000771  43.9320000  2
      2      6     16      4     4  180.0000771  4.6024000  2
      1      5     14     25     1  0.0000000  0.6508444  3
      1      5     14     26     1  0.0000000  0.6508444  3
      1      5     14     27     1  0.0000000  0.6508444  3
      1      8     10     20     1  180.0000771  15.1670000  2
      1      9     11     21     1  180.0000771  15.1670000  2
      3     15      2     17     1  0.0000000  8.3680000  1
      3     15      2     17     1  180.0000771  10.4600000  2
      4     13     12     22     1  180.0000771  27.8236000  2
      4     16      2     17     1  180.0000771  10.4600000  2
      5      1      8     18     1  180.0000771  15.1670000  2
      5      1      9     19     1  180.0000771  15.1670000  2
      6     16      2     17     1  180.0000771  10.4600000  2
      7     10      8     18     1  180.0000771  15.1670000  2
      7     11      9     19     1  180.0000771  15.1670000  2
      8      1      5     23     1  0.0000000  0.0000000  2
      8      1      5     24     1  0.0000000  0.0000000  2
      8      1      9     19     1  180.0000771  15.1670000  2
      9      1      5     23     1  0.0000000  0.0000000  2
      9      1      5     24     1  0.0000000  0.0000000  2
      9      1      8     18     1  180.0000771  15.1670000  2
     10      7     11     21     1  180.0000771  15.1670000  2
     10      7     12     22     1  180.0000771  2.9288000  2
     11      7     10     20     1  180.0000771  15.1670000  2
     11      7     12     22     1  180.0000771  2.9288000  2
     12      7     10     20     1  180.0000771  15.1670000  2
     12      7     11     21     1  180.0000771  15.1670000  2
     13     15      2     17     1  180.0000771  10.4600000  2
     15     13     12     22     1  180.0000771  27.8236000  2
     18      8     10     20     1  180.0000771  15.1670000  2
     19      9     11     21     1  180.0000771  15.1670000  2
     23      5     14     25     1  0.0000000  0.6276000  3
     23      5     14     26     1  0.0000000  0.6276000  3
     23      5     14     27     1  0.0000000  0.6276000  3
     24      5     14     25     1  0.0000000  0.6276000  3
     24      5     14     26     1  0.0000000  0.6276000  3
     24      5     14     27     1  0.0000000  0.6276000  3
     15     16      2     17     4  180.0000771  4.6024000  2
      1     10      8     18     4  180.0000771  4.6024000  2
      1     11      9     19     4  180.0000771  4.6024000  2
      7      8     10     20     4  180.0000771  4.6024000  2
      7      9     11     21     4  180.0000771  4.6024000  2
      7     13     12     22     4  180.0000771  4.6024000  2